#Units: real
#AtomStyle: full
#FF: GAFF

        17 atoms
        17 bonds
        33 angles
        54 dihedrals
         0 impropers

         5 atom types
         4 bond types
         9 angle types
         8 dihedral types
         0 improper types

    0.000000000000000   28.778000000000003 xlo xhi
    0.000000000000000   28.778000000000003 ylo yhi
    0.000000000000000   28.778000000000003 zlo zhi

Masses

     1             12.01000 # c3      
     2             14.01000 # n3      
     3              1.00800 # hc      
     4              1.00800 # h1      
     5              1.00800 # hn      

Pair Coeffs

     1    0.109400095602294    3.399670000000001 # c3      
     2    0.170000000000000    3.250000000000000 # n3      
     3    0.015700000000000    2.649530000000000 # hc      
     4    0.015700000000000    2.471350000000000 # h1      
     5    0.015700000000000    1.069080000000000 # hn      

Bond Coeffs

     1 300.896271510516290    1.537500000000000
     2 330.604684512428290    1.096900000000000
     3 325.896271510516220    1.464700000000000
     4 392.399617590822140    1.019000000000000

Angle Coeffs

     1 46.300191204588909  109.800000000000000
     2 62.900334608030592  111.510000000000000
     3 39.200525812619494  108.460000000000000
     4 39.400095602294451  107.580000000000000
     5 46.400573613766726  109.560000000000000
     6 66.000239005736128  111.040000000000000
     7 47.399617590822176  109.290000000000000
     8 63.800191204588902  112.350000000000000
     9 49.500478011472275  109.880000000000000

Dihedral Coeffs

     1 0.155554493307839 3 0 0.0
     2 0.300000000000000 3 0 0.0
     3 0.160000000000000 3 0 0.0
     4 0.200000000000000 1 180 0.0
     5 0.250000000000000 2 180 0.0
     6 0.180000000000000 3 0 0.0
     7 0.480000000000000 2 180 0.0
     8 0.150000000000000 3 0 0.0

Atoms

     1     1     1            -0.078399   14.580000000000000   15.700000000000000   14.790000000000000
     2     1     1              -0.0774   13.220000000000000   15.009999999999997   14.970000000000000
     3     1     1               0.1638   13.400000000000000   13.490000000000000   15.030000000000000
     4     1     2            -0.817201   14.090000000000000   13.030000000000000   13.810000000000000
     5     1     1               0.1638   15.430000000000000   13.600000000000003   13.690000000000000
     6     1     1              -0.0774   15.329999999999997   15.120000000000000   13.580000000000003
     7     1     3               0.0387   15.190000000000000   15.560000000000000   15.700000000000000
     8     1     3               0.0387   14.440000000000000   16.790000000000000   14.670000000000003
     9     1     3               0.0462   12.729999999999997   15.360000000000000   15.890000000000000
    10     1     3               0.0462   12.560000000000000   15.250000000000000   14.120000000000000
    11     1     4               0.0252   12.430000000000003   12.989999999999997   15.090000000000000
    12     1     4               0.0252   13.970000000000000   13.230000000000000   15.950000000000000
    13     1     5               0.3598   14.130000000000000   12.010000000000003   13.800000000000000
    14     1     4               0.0252   16.070000000000000   13.350000000000000   14.570000000000000
    15     1     4               0.0252   15.910000000000000   13.180000000000000   12.800000000000000
    16     1     3               0.0462   14.790000000000000   15.380000000000000   12.649999999999997
    17     1     3               0.0462   16.340000000000000   15.560000000000000   13.510000000000000

Bonds

       1     1     1     2
       2     1     1     6
       3     2     1     7
       4     2     1     8
       5     2     2    10
       6     1     2     3
       7     2     2     9
       8     2     3    11
       9     2     3    12
      10     3     3     4
      11     4     4    13
      12     3     4     5
      13     2     5    14
      14     2     5    15
      15     1     5     6
      16     2     6    16
      17     2     6    17

Angles

       1     1     1     2    10
       2     2     1     2     3
       3     1     1     2     9
       4     1     1     6    16
       5     1     1     6    17
       6     2     1     6     5
       7     3    11     3    12
       8     3    14     5    15
       9     4    16     6    17
      10     2     2     1     6
      11     1     2     1     7
      12     1     2     1     8
      13     5     2     3    11
      14     5     2     3    12
      15     6     2     3     4
      16     1     3     2    10
      17     1     3     2     9
      18     7     3     4    13
      19     8     3     4     5
      20     9     4     3    11
      21     9     4     3    12
      22     9     4     5    14
      23     9     4     5    15
      24     6     4     5     6
      25     7     5     4    13
      26     1     5     6    16
      27     1     5     6    17
      28     1     6     1     7
      29     1     6     1     8
      30     5     6     5    14
      31     5     6     5    15
      32     4     7     1     8
      33     4     9     2    10

Dihedrals

       1     1     1     2     3    11
       2     1     1     2     3    12
       3     1     1     2     3     4
       4     1     1     6     5    14
       5     1     1     6     5    15
       6     1     1     6     5     4
       7     1    10     2     3    11
       8     1    10     2     3    12
       9     2    11     3     4    13
      10     2    12     3     4    13
      11     2    13     4     5    14
      12     2    13     4     5    15
      13     1    14     5     6    16
      14     1    14     5     6    17
      15     1    15     5     6    16
      16     1    15     5     6    17
      17     3     2     1     6    16
      18     3     2     1     6    17
      19     4     2     1     6     5
      20     5     2     1     6     5
      21     6     2     1     6     5
      22     2     2     3     4    13
      23     7     2     3     4     5
      24     2     2     3     4     5
      25     2     3     4     5    14
      26     2     3     4     5    15
      27     7     3     4     5     6
      28     2     3     4     5     6
      29     1     4     3     2    10
      30     1     4     3     2     9
      31     1     4     5     6    16
      32     1     4     5     6    17
      33     2     5     4     3    11
      34     2     5     4     3    12
      35     3     6     1     2    10
      36     4     6     1     2     3
      37     5     6     1     2     3
      38     6     6     1     2     3
      39     3     6     1     2     9
      40     2     6     5     4    13
      41     8     7     1     2    10
      42     3     7     1     2     3
      43     8     7     1     2     9
      44     8     7     1     6    16
      45     8     7     1     6    17
      46     3     7     1     6     5
      47     8     8     1     2    10
      48     3     8     1     2     3
      49     8     8     1     2     9
      50     8     8     1     6    16
      51     8     8     1     6    17
      52     3     8     1     6     5
      53     1     9     2     3    11
      54     1     9     2     3    12
