#Units: real
#AtomStyle: full
#FF: GAFF

      2517 atoms
      2017 bonds
      3033 angles
        54 dihedrals
         0 impropers

         7 atom types
         6 bond types
        12 angle types
         8 dihedral types
         0 improper types

    0.000000000000000   44.532999999999994 xlo xhi
    0.000000000000000   44.532999999999994 ylo yhi
    0.000000000000000   44.532999999999994 zlo zhi

Masses

     1             12.01000 # c3      
     2             14.01000 # n3      
     3              1.00800 # hc      
     4              1.00800 # h1      
     5              1.00800 # hn      
     6             35.45000 # cl      
     7              1.00800 # h2      

Pair Coeffs

     1    0.109400095602294    3.399670000000001 # c3      
     2    0.170000000000000    3.250000000000000 # n3      
     3    0.015700000000000    2.649530000000000 # hc      
     4    0.015700000000000    2.471350000000000 # h1      
     5    0.015700000000000    1.069080000000000 # hn      
     6    0.265000000000000    3.470940000000000 # cl      
     7    0.015700000000000    2.293170000000000 # h2      

Bond Coeffs

     1 300.896271510516290    1.537500000000000
     2 330.604684512428290    1.096900000000000
     3 325.896271510516220    1.464700000000000
     4 392.399617590822140    1.019000000000000
     5 266.300191204588900    1.804500000000000
     6 331.704110898661630    1.096100000000000

Angle Coeffs

     1 46.300191204588909  109.800000000000000
     2 62.900334608030592  111.510000000000000
     3 39.200525812619494  108.460000000000000
     4 39.400095602294451  107.580000000000000
     5 46.400573613766726  109.560000000000000
     6 66.000239005736128  111.040000000000000
     7 47.399617590822176  109.290000000000000
     8 63.800191204588902  112.350000000000000
     9 49.500478011472275  109.880000000000000
    10 54.100143403441677  109.330000000000000
    11 40.000000000000000  106.990000000000000
    12 38.999760994263866  110.200000000000000

Dihedral Coeffs

     1 0.155554493307839 3 0 0.0
     2 0.300000000000000 3 0 0.0
     3 0.160000000000000 3 0 0.0
     4 0.200000000000000 1 180 0.0
     5 0.250000000000000 2 180 0.0
     6 0.180000000000000 3 0 0.0
     7 0.480000000000000 2 180 0.0
     8 0.150000000000000 3 0 0.0

Atoms

     1     1     1            -0.078399   21.930000000000000   22.810000000000003   22.450000000000003
     2     1     1              -0.0774   20.570000000000000   22.120000000000000   22.639999999999997
     3     1     1               0.1638   20.760000000000000   20.600000000000000   22.690000000000000
     4     1     2            -0.817201   21.440000000000000   20.139999999999997   21.480000000000000
     5     1     1               0.1638   22.780000000000000   20.710000000000000   21.360000000000000
     6     1     1              -0.0774   22.680000000000000   22.229999999999997   21.250000000000000
     7     1     3               0.0387   22.540000000000000   22.669999999999997   23.360000000000000
     8     1     3               0.0387   21.790000000000000   23.900000000000003   22.340000000000000
     9     1     3               0.0462   20.079999999999997   22.470000000000000   23.560000000000000
    10     1     3               0.0462   19.910000000000000   22.360000000000003   21.790000000000000
    11     1     4               0.0252   19.780000000000000   20.099999999999997   22.759999999999997
    12     1     4               0.0252   21.320000000000000   20.339999999999997   23.620000000000000
    13     1     5               0.3598   21.480000000000000   19.119999999999997   21.470000000000000
    14     1     4               0.0252   23.420000000000003   20.459999999999997   22.240000000000003
    15     1     4               0.0252   23.260000000000000   20.290000000000000   20.470000000000003
    16     1     3               0.0462   22.140000000000000   22.490000000000003   20.320000000000000
    17     1     3               0.0462   23.690000000000000   22.669999999999997   21.180000000000000
    18     2     1               0.1224   20.150000000000003   35.099999999999994   15.100000000000000
    19     2     6              -0.1509   19.010000000000000   34.790000000000000   13.780000000000000
    20     2     6              -0.1509   19.340000000000000   35.440000000000000   16.640000000000000
    21     2     7               0.0897   20.790000000000003   34.210000000000000   15.229999999999997
    22     2     7               0.0897   20.750000000000000   35.990000000000000   14.830000000000003
    23     3     1               0.1224   25.750000000000000   33.650000000000006   40.019999999999994
    24     3     6              -0.1509   24.320000000000000   33.530000000000000   41.070000000000000
    25     3     6              -0.1509   25.329999999999997   33.970000000000000   38.330000000000000
    26     3     7               0.0897   26.370000000000000   34.489999999999994   40.380000000000000
    27     3     7               0.0897   26.290000000000000   32.690000000000000   40.069999999999994
    28     4     1               0.1224   14.690000000000000    5.450000000000000    8.900000000000000
    29     4     6              -0.1509   15.410000000000000    4.250000000000000    9.990000000000000
    30     4     6              -0.1509   14.450000000000000    4.830000000000000    7.260000000000000
    31     4     7               0.0897   13.700000000000000    5.739999999999999    9.310000000000000
    32     4     7               0.0897   15.370000000000000    6.320000000000000    8.850000000000000
    33     5     1               0.1224   39.390000000000000   23.540000000000000   41.840000000000006
    34     5     6              -0.1509   39.680000000000000   23.140000000000000   40.129999999999994
    35     5     6              -0.1509   40.170000000000000   22.400000000000003   42.950000000000000
    36     5     7               0.0897   39.800000000000000   24.550000000000000   42.030000000000000
    37     5     7               0.0897   38.300000000000000   23.520000000000000   42.019999999999994
    38     6     1               0.1224   36.629999999999994   40.430000000000000   37.710000000000000
    39     6     6              -0.1509   37.980000000000006   40.410000000000006   38.860000000000000
    40     6     6              -0.1509   35.560000000000000   41.830000000000000   37.950000000000000
    41     6     7               0.0897   37.050000000000000   40.490000000000000   36.690000000000000
    42     6     7               0.0897   36.040000000000000   39.510000000000000   37.860000000000000
    43     7     1               0.1224    3.880000000000000   33.710000000000000   26.150000000000003
    44     7     6              -0.1509    4.859999999999999   34.519999999999994   27.380000000000000
    45     7     6              -0.1509    2.150000000000000   33.750000000000000   26.530000000000000
    46     7     7               0.0897    4.030000000000000   34.230000000000006   25.190000000000000
    47     7     7               0.0897    4.200000000000000   32.659999999999994   26.090000000000000
    48     8     1               0.1224   42.080000000000000   34.180000000000000   24.880000000000000
    49     8     6              -0.1509   41.460000000000000   32.940000000000000   25.970000000000000
    50     8     6              -0.1509   42.310000000000000   33.590000000000006   23.230000000000000
    51     8     7               0.0897   41.360000000000000   35.019999999999994   24.849999999999997
    52     8     7               0.0897   43.070000000000006   34.519999999999994   25.270000000000003
    53     9     1               0.1224   35.830000000000000   19.380000000000000   24.529999999999997
    54     9     6              -0.1509   36.409999999999994   21.009999999999997   24.140000000000000
    55     9     6              -0.1509   36.430000000000000   18.160000000000000   23.390000000000000
    56     9     7               0.0897   36.180000000000000   19.110000000000000   25.540000000000000
    57     9     7               0.0897   34.720000000000000   19.380000000000000   24.470000000000000
    58    10     1               0.1224   13.250000000000000   40.830000000000000   41.220000000000000
    59    10     6              -0.1509   13.720000000000000   40.069999999999994   42.750000000000000
    60    10     6              -0.1509   13.860000000000000   42.480000000000006   41.060000000000000
    61    10     7               0.0897   13.670000000000000   40.220000000000000   40.390000000000000
    62    10     7               0.0897   12.150000000000000   40.860000000000000   41.180000000000006
    63    11     1               0.1224   31.410000000000000   19.950000000000003    8.219999999999999
    64    11     6              -0.1509   30.560000000000000   21.349999999999997    7.550000000000000
    65    11     6              -0.1509   30.760000000000000   19.460000000000000    9.789999999999999
    66    11     7               0.0897   31.280000000000000   19.099999999999997    7.520000000000000
    67    11     7               0.0897   32.470000000000000   20.210000000000000    8.350000000000000
    68    12     1               0.1224   22.500000000000000   34.960000000000000   33.630000000000000
    69    12     6              -0.1509   20.840000000000000   35.460000000000000   33.990000000000000
    70    12     6              -0.1509   22.880000000000000   33.360000000000000   34.290000000000000
    71    12     7               0.0897   22.620000000000000   34.920000000000000   32.530000000000000
    72    12     7               0.0897   23.189999999999997   35.699999999999994   34.080000000000000
    73    13     1               0.1224   21.460000000000000   13.590000000000000   38.830000000000000
    74    13     6              -0.1509   22.650000000000003   14.680000000000000   39.570000000000000
    75    13     6              -0.1509   21.840000000000003   13.210000000000000   37.140000000000000
    76    13     7               0.0897   21.440000000000000   12.649999999999997   39.400000000000000
    77    13     7               0.0897   20.470000000000003   14.100000000000000   38.860000000000000
    78    14     1               0.1224   16.460000000000000   34.010000000000000   22.570000000000000
    79    14     6              -0.1509   17.669999999999997   34.700000000000000   21.470000000000000
    80    14     6              -0.1509   16.690000000000000   34.550000000000000   24.250000000000000
    81    14     7               0.0897   15.460000000000000   34.350000000000000   22.240000000000003
    82    14     7               0.0897   16.550000000000000   32.909999999999994   22.549999999999997
    83    15     1               0.1224   18.070000000000000   13.840000000000000   32.629999999999994
    84    15     6              -0.1509   18.540000000000000   12.770000000000000   33.960000000000000
    85    15     6              -0.1509   17.869999999999997   12.980000000000000   31.100000000000000
    86    15     7               0.0897   17.110000000000000   14.310000000000000   32.900000000000000
    87    15     7               0.0897   18.870000000000000   14.600000000000000   32.500000000000000
    88    16     1               0.1224   27.370000000000000    6.909999999999999    7.770000000000000
    89    16     6              -0.1509   27.010000000000000    8.129999999999999    9.000000000000000
    90    16     6              -0.1509   28.920000000000000    6.090000000000000    8.070000000000000
    91    16     7               0.0897   26.570000000000000    6.150000000000000    7.790000000000000
    92    16     7               0.0897   27.440000000000000    7.420000000000000    6.790000000000001
    93    17     1               0.1224    6.930000000000000   18.070000000000000   33.310000000000000
    94    17     6              -0.1509    5.540000000000001   19.160000000000000   33.290000000000000
    95    17     6              -0.1509    6.890000000000000   16.950000000000000   34.690000000000000
    96    17     7               0.0897    6.920000000000000   17.470000000000003   32.380000000000000
    97    17     7               0.0897    7.850000000000000   18.680000000000000   33.390000000000000
    98    18     1               0.1224   38.090000000000006   22.790000000000000   30.350000000000000
    99    18     6              -0.1509   37.310000000000000   21.500000000000000   31.280000000000000
   100    18     6              -0.1509   37.720000000000000   22.680000000000000   28.620000000000000
   101    18     7               0.0897   37.710000000000000   23.759999999999997   30.720000000000000
   102    18     7               0.0897   39.180000000000000   22.700000000000000   30.480000000000000
   103    19     1               0.1224   26.430000000000000   18.100000000000000    4.030000000000000
   104    19     6              -0.1509   24.790000000000000   17.450000000000003    3.880000000000000
   105    19     6              -0.1509   26.530000000000000   19.800000000000000    3.540000000000000
   106    19     7               0.0897   26.740000000000000   18.020000000000000    5.090000000000000
   107    19     7               0.0897   27.090000000000000   17.509999999999997    3.370000000000000
   108    20     1               0.1224   15.740000000000000   39.120000000000000    3.890000000000000
   109    20     6              -0.1509   16.329999999999997   40.140000000000000    5.210000000000000
   110    20     6              -0.1509   16.939999999999997   37.940000000000000    3.350000000000000
   111    20     7               0.0897   14.850000000000003   38.560000000000000    4.250000000000000
   112    20     7               0.0897   15.489999999999997   39.769999999999994    3.030000000000000
   113    21     1               0.1224   34.870000000000006   19.099999999999997   19.690000000000000
   114    21     6              -0.1509   35.059999999999994   19.170000000000003   21.450000000000000
   115    21     6              -0.1509   33.199999999999994   19.370000000000000   19.180000000000000
   116    21     7               0.0897   35.500000000000000   19.890000000000000   19.240000000000000
   117    21     7               0.0897   35.180000000000000   18.090000000000000   19.350000000000000
   118    22     1               0.1224   21.680000000000000   37.180000000000000   28.210000000000000
   119    22     6              -0.1509   21.579999999999997   38.430000000000000   29.460000000000000
   120    22     6              -0.1509   21.120000000000000   37.760000000000000   26.630000000000000
   121    22     7               0.0897   22.740000000000003   36.880000000000000   28.110000000000000
   122    22     7               0.0897   21.050000000000000   36.330000000000000   28.509999999999997
   123    23     1               0.1224    7.830000000000000   28.720000000000000   25.200000000000000
   124    23     6              -0.1509    6.860000000000000   28.970000000000000   23.740000000000003
   125    23     6              -0.1509    6.860000000000000   28.100000000000000   26.549999999999997
   126    23     7               0.0897    8.619999999999999   27.980000000000000   24.970000000000000
   127    23     7               0.0897    8.260000000000000   29.690000000000000   25.500000000000000
   128    24     1               0.1224   32.380000000000000    3.450000000000000    9.549999999999999
   129    24     6              -0.1509   33.640000000000000    2.200000000000000    9.600000000000000
   130    24     6              -0.1509   31.960000000000000    3.910000000000000    7.890000000000000
   131    24     7               0.0897   31.470000000000000    3.050000000000000   10.030000000000000
   132    24     7               0.0897   32.760000000000000    4.349999999999999   10.069999999999998
   133    25     1               0.1224   26.099999999999997   19.400000000000000   39.360000000000000
   134    25     6              -0.1509   27.390000000000000   20.160000000000000   38.400000000000000
   135    25     6              -0.1509   24.480000000000000   19.920000000000003   38.860000000000000
   136    25     7               0.0897   26.170000000000003   18.300000000000000   39.230000000000006
   137    25     7               0.0897   26.240000000000003   19.680000000000000   40.420000000000000
   138    26     1               0.1224   20.680000000000000   16.710000000000000   36.379999999999994
   139    26     6              -0.1509   19.330000000000003   17.570000000000000   35.620000000000000
   140    26     6              -0.1509   20.400000000000000   16.390000000000000   38.100000000000000
   141    26     7               0.0897   20.810000000000000   15.740000000000000   35.870000000000006
   142    26     7               0.0897   21.589999999999997   17.340000000000000   36.290000000000000
   143    27     1               0.1224    9.740000000000000   40.370000000000000   31.470000000000000
   144    27     6              -0.1509    8.100000000000001   39.950000000000000   30.930000000000000
   145    27     6              -0.1509   10.289999999999998   41.920000000000000   30.810000000000000
   146    27     7               0.0897    9.730000000000000   40.440000000000000   32.570000000000000
   147    27     7               0.0897   10.430000000000000   39.580000000000000   31.120000000000000
   148    28     1               0.1224    7.470000000000000   30.960000000000000    6.580000000000000
   149    28     6              -0.1509    8.030000000000001   31.990000000000000    7.910000000000000
   150    28     6              -0.1509    5.750000000000000   30.540000000000000    6.730000000000000
   151    28     7               0.0897    7.610000000000000   31.510000000000000    5.629999999999999
   152    28     7               0.0897    8.060000000000000   30.019999999999994    6.600000000000000
   153    29     1               0.1224   14.100000000000000   10.860000000000002   24.060000000000003
   154    29     6              -0.1509   15.470000000000000    9.750000000000000   24.290000000000000
   155    29     6              -0.1509   12.740000000000000   10.500000000000000   25.130000000000000
   156    29     7               0.0897   14.450000000000000   11.890000000000000   24.270000000000000
   157    29     7               0.0897   13.759999999999997   10.770000000000000   23.010000000000000
   158    30     1               0.1224    6.740000000000000   39.449999999999994   15.050000000000000
   159    30     6              -0.1509    4.970000000000000   39.390000000000000   14.910000000000000
   160    30     6              -0.1509    7.280000000000000   39.570000000000000   16.740000000000000
   161    30     7               0.0897    7.150000000000000   38.510000000000000   14.630000000000000
   162    30     7               0.0897    7.110000000000000   40.330000000000006   14.500000000000000
   163    31     1               0.1224    3.970000000000000    6.390000000000000   42.400000000000006
   164    31     6              -0.1509    2.670000000000000    6.060000000000000   41.250000000000000
   165    31     6              -0.1509    5.500000000000000    6.780000000000000   41.600000000000000
   166    31     7               0.0897    3.680000000000000    7.260000000000000   43.019999999999994
   167    31     7               0.0897    4.130000000000000    5.490000000000000   43.019999999999994
   168    32     1               0.1224   20.840000000000000   27.919999999999997   29.540000000000000
   169    32     6              -0.1509   19.990000000000003   29.280000000000000   30.310000000000000
   170    32     6              -0.1509   21.380000000000000   26.720000000000003   30.720000000000000
   171    32     7               0.0897   20.139999999999997   27.430000000000000   28.840000000000000
   172    32     7               0.0897   21.730000000000000   28.320000000000000   29.020000000000000
   173    33     1               0.1224   27.759999999999997   41.879999999999994    7.390000000000000
   174    33     6              -0.1509   27.839999999999997   40.350000000000000    6.480000000000000
   175    33     6              -0.1509   26.630000000000000   41.790000000000006    8.750000000000000
   176    33     7               0.0897   28.759999999999997   42.100000000000000    7.780000000000000
   177    33     7               0.0897   27.410000000000000   42.670000000000000    6.700000000000000
   178    34     1               0.1224   13.000000000000000   21.430000000000000   24.720000000000000
   179    34     6              -0.1509   12.989999999999997   22.829999999999997   23.630000000000000
   180    34     6              -0.1509   11.760000000000000   21.560000000000003   25.979999999999997
   181    34     7               0.0897   12.790000000000000   20.520000000000000   24.130000000000000
   182    34     7               0.0897   13.990000000000000   21.380000000000000   25.220000000000000
   183    35     1               0.1224    3.439999999999999   37.589999999999994   16.299999999999997
   184    35     6              -0.1509    3.160000000000000   39.310000000000000   16.619999999999997
   185    35     6              -0.1509    1.990000000000000   36.610000000000000   16.540000000000000
   186    35     7               0.0897    3.760000000000000   37.490000000000000   15.240000000000000
   187    35     7               0.0897    4.229999999999999   37.240000000000000   16.990000000000003
   188    36     1               0.1224   30.880000000000000    8.299999999999999   30.250000000000000
   189    36     6              -0.1509   31.500000000000000    7.340000000000000   31.610000000000000
   190    36     6              -0.1509   32.170000000000000    8.850000000000000   29.170000000000000
   191    36     7               0.0897   30.180000000000000    7.670000000000000   29.670000000000000
   192    36     7               0.0897   30.370000000000000    9.190000000000001   30.659999999999994
   193    37     1               0.1224   18.200000000000000    9.770000000000000   31.120000000000000
   194    37     6              -0.1509   19.750000000000000   10.300000000000002   31.800000000000000
   195    37     6              -0.1509   17.480000000000000   10.980000000000000   30.050000000000000
   196    37     7               0.0897   18.380000000000003    8.850000000000000   30.530000000000000
   197    37     7               0.0897   17.500000000000000    9.580000000000000   31.960000000000000
   198    38     1               0.1224   17.140000000000000   33.530000000000000   30.840000000000000
   199    38     6              -0.1509   18.600000000000000   34.110000000000000   31.660000000000000
   200    38     6              -0.1509   17.250000000000000   33.660000000000006   29.080000000000000
   201    38     7               0.0897   16.990000000000003   32.460000000000000   31.100000000000000
   202    38     7               0.0897   16.279999999999997   34.150000000000000   31.180000000000000
   203    39     1               0.1224   17.720000000000000    4.250000000000000   21.470000000000000
   204    39     6              -0.1509   17.960000000000000    5.739999999999999   22.400000000000003
   205    39     6              -0.1509   18.240000000000003    4.410000000000000   19.780000000000000
   206    39     7               0.0897   18.310000000000000    3.450000000000000   21.939999999999997
   207    39     7               0.0897   16.640000000000000    4.010000000000000   21.470000000000000
   208    40     1               0.1224   14.110000000000000    7.190000000000000   25.419999999999997
   209    40     6              -0.1509   13.850000000000000    8.640000000000000   26.410000000000000
   210    40     6              -0.1509   15.750000000000000    7.110000000000000   24.759999999999997
   211    40     7               0.0897   13.960000000000000    6.300000000000000   26.070000000000000
   212    40     7               0.0897   13.400000000000000    7.199999999999999   24.580000000000003
   213    41     1               0.1224   23.450000000000003   25.960000000000000    3.130000000000000
   214    41     6              -0.1509   22.280000000000000   25.520000000000000    1.880000000000000
   215    41     6              -0.1509   22.799999999999997   25.770000000000000    4.760000000000000
   216    41     7               0.0897   24.329999999999997   25.290000000000000    3.030000000000000
   217    41     7               0.0897   23.730000000000003   27.020000000000000    2.990000000000000
   218    42     1               0.1224   15.880000000000000   11.540000000000000   35.080000000000000
   219    42     6              -0.1509   14.150000000000000   11.150000000000000   34.950000000000000
   220    42     6              -0.1509   16.160000000000000   13.120000000000000   35.830000000000000
   221    42     7               0.0897   16.360000000000000   10.770000000000000   35.699999999999994
   222    42     7               0.0897   16.299999999999997   11.570000000000000   34.060000000000000
   223    43     1               0.1224   17.730000000000000    9.080000000000000   41.289999999999994
   224    43     6              -0.1509   18.630000000000000   10.329999999999998   40.410000000000006
   225    43     6              -0.1509   17.600000000000000    9.440000000000000   43.019999999999994
   226    43     7               0.0897   16.710000000000000    9.030000000000001   40.870000000000000
   227    43     7               0.0897   18.270000000000000    8.120000000000001   41.170000000000000
   228    44     1               0.1224   28.260000000000000   35.720000000000000   34.990000000000000
   229    44     6              -0.1509   28.759999999999997   36.960000000000000   36.150000000000006
   230    44     6              -0.1509   28.610000000000003   36.180000000000000   33.310000000000000
   231    44     7               0.0897   28.820000000000000   34.790000000000000   35.210000000000000
   232    44     7               0.0897   27.170000000000003   35.570000000000000   35.080000000000000
   233    45     1               0.1224    6.840000000000001    6.940000000000000    6.350000000000000
   234    45     6              -0.1509    7.850000000000000    5.949999999999999    5.300000000000001
   235    45     6              -0.1509    5.340000000000000    7.470000000000000    5.560000000000001
   236    45     7               0.0897    6.570000000000000    6.340000000000000    7.240000000000000
   237    45     7               0.0897    7.410000000000000    7.840000000000000    6.640000000000000
   238    46     1               0.1224   30.010000000000000   31.110000000000000   15.690000000000000
   239    46     6              -0.1509   30.770000000000000   31.810000000000000   17.130000000000003
   240    46     6              -0.1509   28.250000000000000   31.290000000000000   15.700000000000000
   241    46     7               0.0897   30.410000000000000   31.640000000000000   14.800000000000000
   242    46     7               0.0897   30.250000000000000   30.030000000000000   15.660000000000000
   243    47     1               0.1224   14.610000000000000   23.540000000000000   40.279999999999994
   244    47     6              -0.1509   15.810000000000000   24.260000000000000   39.190000000000000
   245    47     6              -0.1509   13.970000000000000   24.720000000000000   41.440000000000000
   246    47     7               0.0897   13.770000000000000   23.159999999999997   39.680000000000000
   247    47     7               0.0897   15.110000000000000   22.740000000000003   40.850000000000000
   248    48     1               0.1224   10.360000000000000   38.260000000000000    4.470000000000000
   249    48     6              -0.1509    9.360000000000001   36.890000000000000    3.960000000000000
   250    48     6              -0.1509    9.860000000000000   38.930000000000000    6.030000000000000
   251    48     7               0.0897   11.410000000000000   37.900000000000000    4.560000000000001
   252    48     7               0.0897   10.280000000000002   39.050000000000000    3.700000000000000
   253    49     1               0.1224   22.300000000000000   38.809999999999994   21.549999999999997
   254    49     6              -0.1509   23.490000000000003   39.620000000000006   22.599999999999997
   255    49     6              -0.1509   22.770000000000003   38.849999999999994   19.840000000000000
   256    49     7               0.0897   22.229999999999997   37.760000000000000   21.860000000000000
   257    49     7               0.0897   21.340000000000000   39.340000000000006   21.660000000000000
   258    50     1               0.1224    2.960000000000000   14.640000000000000   30.830000000000000
   259    50     6              -0.1509    2.240000000000000   13.310000000000000   29.910000000000000
   260    50     6              -0.1509    3.170000000000000   14.230000000000000   32.550000000000000
   261    50     7               0.0897    3.960000000000000   14.850000000000003   30.410000000000000
   262    50     7               0.0897    2.290000000000000   15.510000000000000   30.760000000000000
   263    51     1               0.1224    9.820000000000000   37.570000000000000   35.230000000000006
   264    51     6              -0.1509   10.770000000000000   36.900000000000000   36.570000000000000
   265    51     6              -0.1509    9.559999999999999   36.390000000000000   33.930000000000000
   266    51     7               0.0897    8.840000000000000   37.890000000000000   35.620000000000000
   267    51     7               0.0897   10.380000000000002   38.430000000000000   34.810000000000000
   268    52     1               0.1224   15.820000000000000   26.230000000000003   34.350000000000000